% Model:              240614_PHQ_v1_BC fluid model.mph
% Version:            COMSOL 6.2.0.290
% Date:               Jun 25 2024, 11:14
% Dimension:          1
% Nodes:              17616
% Expressions:        1
% Description:        Point graph
% Time (s)                Temperature
0                         730.0000000000072
0.001                     730.0000000036074
0.002                     730.0000000072138
0.003                     730.0000000108088
0.004                     730.0000000143888
0.005                     730.0000000179174
0.006                     730.0000000214179
0.007                     730.0000000249187
0.008                     730.0000000284193
0.009000000000000001      730.0000000319151
0.01                      730.0000000353853
0.011                     730.9445865756312
0.012                     744.5122882656633
0.013000000000000001      775.857833357462
0.014                     811.6747198360367
0.015                     847.5736921412425
0.016                     883.1750798813085
0.017                     918.6988250989233
0.018000000000000002      947.5388815613443
0.019                     954.9629093392184
0.02                      954.1091040960077
0.021                     952.9094548127695
0.022                     951.7180645924989
0.023                     950.5356975233054
0.024                     949.3597621851542
0.025                     948.1857109178329
0.026000000000000002      947.0367688087134
0.027                     945.8878266995938
0.028                     944.7388845904741
0.029                     943.5899424813545
0.03                      942.4481881500865
0.031                     941.3506865803248
0.032                     940.2531850105632
0.033                     939.1556834408016
0.034                     938.05818187104
0.035                     936.9606803012783
0.036000000000000004      935.8631787315169
0.037                     934.7656771617552
0.038                     933.6681755919936
0.039                     932.5706740222321
0.04                      931.4885254626167
0.041                     930.4459357564677
0.042                     929.4033460503184
0.043000000000000003      928.3607563441693
0.044                     927.3181666380202
0.045                     926.275576931871
0.046                     925.2329872257218
0.047                     924.1903975195728
0.048                     923.1478078134236
0.049                     922.1052181072745
0.05                      921.0775205556888
0.051000000000000004      920.0881944084433
0.052000000000000005      919.0988682611976
0.053                     918.1095421139521
0.054                     917.1202159667068
0.055                     916.130889819461
0.056                     915.1415636722156
0.057                     914.15223752497
0.058                     913.1629113777244
0.059000000000000004      912.1735852304789
0.06                      911.1984160647827
0.061                     910.2597240428712
0.062                     909.3210320209598
0.063                     908.3823399990482
0.064                     907.4436479771366
0.065                     906.5049559552252
0.066                     905.5662639333137
0.067                     904.6275719114022
0.068                     903.6888798894906
0.069                     902.7501878675793
0.07                      901.8176261708651
0.07100000000000001       900.9035892912874
0.07200000000000001       899.9938183071496
0.073                     899.0883132184517
0.074                     898.1870740251937
0.075                     897.290100727376
0.076                     896.3973933249979
0.077                     895.5089518180597
0.078                     894.6247762065616
0.079                     893.7448664905033
0.08                      892.8691699839247
0.081                     891.9975801646281
0.082                     891.1302195783117
0.083                     890.2670882249761
0.084                     889.4081861046211
0.085                     888.5535132172466
0.08600000000000001       887.7030695628529
0.08700000000000001       886.8568551414398
0.088                     886.0148699530071
0.089                     885.1771139975554
0.09                      884.3436063176528
0.091                     883.514385414189
0.092                     882.6894069948153
0.093                     881.8686710595312
0.094                     881.0521776083368
0.095                     880.2399266412324
0.096                     879.431918158218
0.097                     878.6281521592931
0.098                     877.8286286444581
0.099                     877.0333476137129
0.1                       876.2421604815455
0.101                     875.4547668329086
0.10200000000000001       874.6715122724997
0.10300000000000001       873.8923968003182
0.10400000000000001       873.1174204163647
0.105                     872.3465831206391
0.106                     871.5798849131409
0.107                     870.8173257938707
0.108                     870.0589057628282
0.109                     869.3046248200134
0.11                      868.5542191399095
0.111                     867.8071553114602
0.112                     867.0640469835766
0.113                     866.3248941562592
0.114                     865.5896968295077
0.115                     864.8584550033222
0.116                     864.1311686777027
0.117                     863.407837852649
0.11800000000000001       862.6884625281614
0.11900000000000001       861.9730427042397
0.12                      861.2612844805983
0.121                     860.5525936400298
0.122                     859.8476537843044
0.123                     859.1464649134222
0.124                     858.4490270273833
0.125                     857.7553401261874
0.126                     857.0654042098353
0.127                     856.379219278326
0.128                     855.69678533166
0.129                     855.0181023698372
0.13                      854.3428910261177
0.131                     853.6705864676911
0.132                     853.0018384918101
0.133                     852.3366470984749
0.134                     851.6750122876855
0.135                     851.0169340594418
0.136                     850.3624124137439
0.137                     849.7114473505916
0.138                     849.0640388699852
0.139                     848.4201869719244
0.14                      847.7796363406371
0.14100000000000001       847.1418707703459
0.14200000000000002       846.5074841165947
0.14300000000000002       845.876476379384
0.14400000000000002       845.2488475587135
0.145                     844.6245976545835
0.146                     844.003726666994
0.147                     843.3862345959445
0.148                     842.7721214414357
0.149                     842.161387203467
0.15                      841.55379554071
0.151                     840.9488686105369
0.152                     840.3471561346017
0.153                     839.7486581129039
0.154                     839.1533745454441
0.155                     838.5613054322221
0.156                     837.9724507732376
0.157                     837.3868105684907
0.158                     836.8043848179816
0.159                     836.2251735217104
0.16                      835.6489529924166
0.161                     835.0752709718823
0.162                     834.5046477488411
0.163                     833.9370833232928
0.164                     833.3725776952375
0.165                     832.8111308646753
0.166                     832.252742831606
0.167                     831.6974135960298
0.168                     831.1451431579464
0.169                     830.5959315173561
0.17                      830.0495644007285
0.171                     829.5056085828328
0.17200000000000001       828.9645624563967
0.17300000000000001       828.4264260214195
0.17400000000000002       827.8911992779016
0.17500000000000002       827.3588822258429
0.176                     826.8294748652431
0.177                     826.3029771961026
0.178                     825.7793892184211
0.179                     825.258710932199
0.18                      824.7407367487093
0.181                     824.2250510019412
0.182                     823.7121318840728
0.183                     823.2019793951042
0.184                     822.6945935350356
0.185                     822.1899743038665
0.186                     821.6881217015974
0.187                     821.1890357282282
0.188                     820.6927163837586
0.189                     820.1991636681889
0.19                      819.708180810442
0.191                     819.2193699723205
0.192                     818.7331888364574
0.193                     818.2496374028531
0.194                     817.7687156715069
0.195                     817.2904236424191
0.196                     816.8147613155899
0.197                     816.3417286910192
0.198                     815.8713257687067
0.199                     815.4035525486528
0.2                       814.9382210781847
0.201                     814.4749513484422
0.202                     814.0141805307601
0.203                     813.5559086251374
0.20400000000000001       813.1001356315747
0.20500000000000002       812.646861550072
0.20600000000000002       812.1960863806295
0.20700000000000002       811.7478101232463
0.20800000000000002       811.3020327779233
0.209                     810.8587543446602
0.21                      810.4177953612674
0.211                     809.9787929852206
0.212                     809.5421646392884
0.213                     809.1079103234705
0.214                     808.6760300377671
0.215                     808.2465237821782
0.216                     807.8193915567032
0.217                     807.3946333613433
0.218                     806.9722491960971
0.219                     806.5522390609657
0.22                      806.1344315100732
0.221                     805.7184799085433
0.222                     805.3047830334772
0.223                     804.8933408848743
0.224                     804.4841534627349
0.225                     804.0772207670589
0.226                     803.6725427978465
0.227                     803.2701195550975
0.228                     802.8699510388119
0.229                     802.4720372489897
0.23                      802.0762143438308
0.231                     801.6821510626254
0.232                     801.2902284956626
0.233                     800.9004466429428
0.234                     800.5128055044655
0.23500000000000001       800.1273050802312
0.23600000000000002       799.7439453702395
0.23700000000000002       799.3627263744908
0.23800000000000002       798.9836480929848
0.23900000000000002       798.6067105257215
0.24                      798.2317571651664
0.241                     797.8584715792678
0.242                     797.48721779907
0.243                     797.117995824573
0.244                     796.7508056557767
0.245                     796.3856472926817
0.246                     796.0225207352873
0.247                     795.6614259835937
0.248                     795.3023630376009
0.249                     794.945331897309
0.25                      794.5901832138685
0.251                     794.2366150288913
0.252                     793.8849747225709
0.253                     793.5352622949075
0.254                     793.1874777459007
0.255                     792.841621075551
0.256                     792.497692283858
0.257                     792.1556913708215
0.258                     791.8156183364425
0.259                     791.4774731807197
0.26                      791.1411135391636
0.261                     790.8062515745916
0.262                     790.4732184218221
0.263                     790.1420140808557
0.264                     789.8126385516923
0.265                     789.4850918343315
0.266                     789.1593739287737
0.267                     788.8354848350186
0.268                     788.5134245530666
0.269                     788.1931930829176
0.27                      787.8746548199485
0.271                     787.5575355942991
0.272                     787.2421508175722
0.273                     786.9285004897683
0.274                     786.6165846108867
0.275                     786.306403180928
0.276                     785.9979561998922
0.277                     785.691243667779
0.278                     785.3862655845885
0.279                     785.0830219503207
0.28                      784.7813836577751
0.281                     784.4810896737931
0.28200000000000003       784.1824402972001
0.28300000000000003       783.8854355279963
0.28400000000000003       783.5900753661816
0.28500000000000003       783.2963598117561
0.28600000000000003       783.0042888647198
0.28700000000000003       782.7138625250726
0.28800000000000003       782.4250807928146
0.289                     782.1379436679455
0.29                      781.8523282775619
0.291                     781.5679861932084
0.292                     781.2852032129563
0.293                     781.0039793368053
0.294                     780.7243145647556
0.295                     780.446208896807
0.296                     780.1696623329599
0.297                     779.8946748732135
0.298                     779.6212465175685
0.299                     779.3493772660249
0.3                       779.0789502358358
0.301                     778.8097291096427
0.302                     778.5419857526199
0.303                     778.2757201647676
0.304                     778.0109323460858
0.305                     777.7476222965744
0.306                     777.4857900162333
0.307                     777.2254355050629
0.308                     776.966558763063
0.309                     776.7091597902336
0.31                      776.4531274634181
0.311                     776.1982371101863
0.312                     775.9447471991072
0.313                     775.6926577301805
0.314                     775.4419687034069
0.315                     775.1926801187857
0.316                     774.9447919763174
0.317                     774.698304276002
0.318                     774.4532170178389
0.319                     774.2095302018287
0.32                      773.9671382350639
0.321                     773.7258276263508
0.322                     773.4858439810944
0.323                     773.2471872992948
0.324                     773.0098575809513
0.325                     772.773854826065
0.326                     772.5391790346347
0.327                     772.3058302066613
0.328                     772.0738083421443
0.329                     771.8431134410838
0.33                      771.6136452083957
0.331                     771.3852008641998
0.332                     771.1580136913485
0.333                     770.9320836898419
0.334                     770.7074108596797
0.335                     770.4839952008624
0.336                     770.2618367133899
0.337                     770.0409353972622
0.338                     769.821291252479
0.339                     769.6029042790406
0.34                      769.3856792479017
0.341                     769.1694236218648
0.342                     768.9543589003539
0.343                     768.7404850833689
0.34400000000000003       768.5278021709096
0.34500000000000003       768.3163101629759
0.34600000000000003       768.1060090595686
0.34700000000000003       767.8968988606864
0.34800000000000003       767.6889795663307
0.34900000000000003       767.4822511765005
0.35000000000000003       767.2766233018173
0.35100000000000003       767.0719131900801
0.352                     766.8683310838173
0.353                     766.6658769830293
0.354                     766.464550887716
0.355                     766.264352797877
0.356                     766.0652827135128
0.357                     765.8673406346232
0.358                     765.6705265612087
0.359                     765.4748404932682
0.36                      765.2801966619551
0.361                     765.0864216570087
0.362                     764.8937149737641
0.363                     764.7020766122216
0.364                     764.511506572381
0.365                     764.3220048542421
0.366                     764.1335714578055
0.367                     763.9462063830705
0.368                     763.7599096300377
0.369                     763.5746811987067
0.37                      763.3904397284389
0.371                     763.207020721634
0.372                     763.0246134202883
0.373                     762.8432178244024
0.374                     762.6628339339754
0.375                     762.483461749008
0.376                     762.3051012695
0.377                     762.1277524954514
0.378                     761.951415426862
0.379                     761.7760900637322
0.38                      761.6016992474733
0.381                     761.4280869763287
0.382                     761.2554327184721
0.383                     761.0837364739035
0.384                     760.9129982426232
0.385                     760.7432180246311
0.386                     760.5743958199271
0.387                     760.4065316285113
0.388                     760.2396254503836
0.389                     760.073677285544
0.39                      759.9086139775063
0.391                     759.7442876160936
0.392                     759.5808683607315
0.393                     759.4183562114196
0.394                     759.2567511681584
0.395                     759.0960532309473
0.396                     758.936262399787
0.397                     758.777378674677
0.398                     758.6194020556175
0.399                     758.4623325426084
0.4                       758.3061007880411
0.401                     758.1505665826529
0.402                     757.995891226552
0.403                     757.8420747197393
0.404                     757.6891170622143
0.405                     757.5370182539774
0.406                     757.3857782950282
0.40700000000000003       757.2353971853668
0.40800000000000003       757.0858749249932
0.40900000000000003       756.9372115139076
0.41000000000000003       756.789341227351
0.41100000000000003       756.642131180856
0.41200000000000003       756.4957342479107
0.41300000000000003       756.350150428515
0.41400000000000003       756.2053797226683
0.41500000000000004       756.0614221303716
0.41600000000000004       755.9182776516237
0.417                     755.7759462864259
0.418                     755.6344280347772
0.419                     755.4937228966778
0.42                      755.3537685915472
0.421                     755.2144391984704
0.422                     755.0758795798969
0.423                     754.9380897358268
0.424                     754.80106966626
0.425                     754.6648193711969
0.426                     754.5293388506369
0.427                     754.3946281045804
0.428                     754.2606871330273
0.429                     754.1275159359778
0.43                      753.9950555056167
0.431                     753.8631865380157
0.432                     753.7320462832843
0.433                     753.6016347414226
0.434                     753.4719519124308
0.435                     753.3429977963086
0.436                     753.2147723930565
0.437                     753.0872757026738
0.438                     752.9605077251609
0.439                     752.8344684605181
0.44                      752.7091020093854
0.441                     752.5842953526113
0.442                     752.4601785101466
0.443                     752.3367514819921
0.444                     752.2140142681475
0.445                     752.0919668686126
0.446                     751.9706092833878
0.447                     751.8499415124729
0.448                     751.7299635558679
0.449                     751.610675413573
0.45                      751.4920241373749
0.451                     751.3739026748459
0.452                     751.2564341816745
0.453                     751.1396186578608
0.454                     751.0234561034043
0.455                     750.9079465183057
0.456                     750.7930899025649
0.457                     750.6788862561814
0.458                     750.5653355791555
0.459                     750.4524378714872
0.46                      750.3401429857379
0.461                     750.2283495321773
0.462                     750.1171741519901
0.463                     750.0066168451768
0.464                     749.8966776117371
0.465                     749.7873564516711
0.466                     749.678653364979
0.467                     749.5705683516608
0.468                     749.4631014117161
0.46900000000000003       749.3562525451453
0.47000000000000003       749.2499742617373
0.47100000000000003       749.1441705442315
0.47200000000000003       749.0389518531946
0.47300000000000003       748.9343181886267
0.47400000000000003       748.8302695505276
0.47500000000000003       748.7268059388974
0.47600000000000003       748.6239273537361
0.47700000000000004       748.5216337950437
0.47800000000000004       748.4199252628202
0.47900000000000004       748.3188017570658
0.48                      748.2182183078928
0.481                     748.1180839937125
0.482                     748.0185034129078
0.483                     747.9194765654792
0.484                     747.821003451426
0.485                     747.7230840707488
0.486                     747.6257184234473
0.487                     747.5289065095213
0.488                     747.4326483289713
0.489                     747.3369438817971
0.49                      747.241750587956
0.491                     747.146982357726
0.492                     747.0527382307944
0.493                     746.9590182071614
0.494                     746.8658222868269
0.495                     746.773150469791
0.496                     746.6810027560534
0.497                     746.5893791456147
0.498                     746.4982796384741
0.499                     746.4077042346321
0.5                       746.3176126196271
0.501                     746.2279232843623
0.502                     746.138729998863
0.503                     746.0500327631299
0.504                     745.9618315771629
0.505                     745.8741264409615
0.506                     745.7869173545262
0.507                     745.7002043178563
0.508                     745.6139873309528
0.509                     745.5282663938151
0.51                      745.4430033393088
0.511                     745.3581209998734
0.512                     745.273708150927
0.513                     745.1897647924693
0.514                     745.1062909245009
0.515                     745.0232865470211
0.516                     744.9407516600306
0.517                     744.8586862635286
0.518                     744.7770903575158
0.519                     744.6959639419919
0.52                      744.6152708846938
0.521                     744.5349381322299
0.522                     744.4550497269793
0.523                     744.3756056689417
0.524                     744.2966059581174
0.525                     744.218050594506
0.526                     744.1399395781083
0.527                     744.0622729089235
0.528                     743.9850505869518
0.529                     743.9082726121934
0.53                      743.8319047803728
0.531                     743.7558779361681
0.532                     743.6802716375249
0.533                     743.6050858844437
0.534                     743.5303206769247
0.535                     743.4559760149673
0.536                     743.3820518985725
0.537                     743.3085483277391
0.538                     743.2354653024678
0.539                     743.1628028227586
0.54                      743.0905285107841
0.541                     743.0185769039942
0.542                     742.9470233120816
0.543                     742.8758677350453
0.544                     742.8051101728868
0.545                     742.7347506256049
0.546                     742.6647890932
0.547                     742.5952255756723
0.548                     742.5260600730211
0.549                     742.4572925852472
0.55                      742.3888924645499
0.551                     742.3207977462034
0.552                     742.2530797159187
0.553                     742.1857383736956
0.554                     742.1187737195345
0.555                     742.0521857534351
0.556                     741.9859744753974
0.557                     741.9201398854215
0.558                     741.8546819835074
0.559                     741.789600769655
0.56                      741.7248672345679
0.561                     741.6604227263018
0.562                     741.596334719465
0.5630000000000001        741.5326032140563
0.5640000000000001        741.4692282100765
0.5650000000000001        741.4062097075256
0.5660000000000001        741.3435477064029
0.5670000000000001        741.2812422067093
0.5680000000000001        741.2192932084441
0.5690000000000001        741.1577007116081
0.5700000000000001        741.0964372585677
0.5710000000000001        741.0354473345835
0.5720000000000001        740.974794805148
0.5730000000000001        740.9144796702606
0.5740000000000001        740.8545019299214
0.5750000000000001        740.7948615841309
0.5760000000000001        740.7355586328887
0.577                     740.6765930761944
0.578                     740.6179649140487
0.579                     740.5596741464514
0.58                      740.5016947850618
0.581                     740.4439742858023
0.582                     740.3865730966436
0.583                     740.3294912175858
0.584                     740.2727286486289
0.585                     740.2162853897726
0.586                     740.1601614410172
0.587                     740.1043568023625
0.588                     740.0488714738087
0.589                     739.9937054553559
0.59                      739.9388341498434
0.591                     739.8842078259283
0.592                     739.829883695744
0.593                     739.7758617592904
0.594                     739.7221420165679
0.595                     739.668724467576
0.596                     739.6156091123152
0.597                     739.5627959507849
0.598                     739.5102849829856
0.599                     739.4580762089172
0.6                       739.4061463485468
0.601                     739.354448333543
0.602                     739.3030363124464
0.603                     739.2519102852572
0.604                     739.2010702519752
0.605                     739.150516212601
0.606                     739.1002481671339
0.607                     739.0502661155746
0.608                     739.0005700579223
0.609                     738.9511599941775
0.61                      738.9020138912459
0.611                     738.853087201896
0.612                     738.8044311743344
0.613                     738.7560458085608
0.614                     738.7079311045754
0.615                     738.6600870623779
0.616                     738.6125136819688
0.617                     738.5652109633478
0.618                     738.5181789065148
0.619                     738.4714175114698
0.62                      738.4249059255434
0.621                     738.3786019881255
0.622                     738.332554201796
0.623                     738.2867625665547
0.624                     738.2412270824018
0.625                     738.195947749337
0.626                     738.1509245673607
0.627                     738.1061575364724
0.628                     738.0616466566727
0.629                     738.0173919279608
0.63                      737.973373615073
0.631                     737.9295518166056
0.632                     737.885972436093
0.633                     737.8426354735352
0.634                     737.7995409289318
0.635                     737.7566888022832
0.636                     737.7140790935892
0.637                     737.6717118028497
0.638                     737.6295869300649
0.639                     737.587704475235
0.64                      737.5460457608009
0.641                     737.5045730238634
0.642                     737.4633297077701
0.643                     737.422315812521
0.644                     737.3815313381166
0.645                     737.3409762845561
0.646                     737.3006506518401
0.647                     737.2605544399685
0.648                     737.220687648941
0.649                     737.1810502787579
0.65                      737.1416246530194
0.651                     737.1023750330019
0.652                     737.0633425333925
0.653                     737.0245271541914
0.654                     736.9859288953985
0.655                     736.9475477570136
0.656                     736.9093837390371
0.657                     736.8714368414688
0.658                     736.8337070643084
0.659                     736.7961944075565
0.66                      736.758882142418
0.661                     736.7217364460688
0.662                     736.6847962290993
0.663                     736.64806149151
0.664                     736.6115322333007
0.665                     736.5752084544713
0.666                     736.5390901550215
0.667                     736.5031773349518
0.668                     736.4674699942622
0.669                     736.4319681329523
0.67                      736.396655919119
0.671                     736.3615013433028
0.672                     736.326541229956
0.673                     736.2917755790786
0.674                     736.2572043906706
0.675                     736.2228276647321
0.676                     736.1886454012632